calculator: qe
length_unit: au
nqpoint: 306    
npath: 6      
segment_nqpoint:
- 51
- 51
- 51
- 51
- 51
- 51
reciprocal_lattice:
- [   0.12792126,   0.00000000,   0.00000000 ] # a*
- [   0.00000000,   0.12792126,   0.00000000 ] # b*
- [   0.00000000,   0.00000000,   0.12792126 ] # c*
natom: 5      
lattice:
- [     7.817308854131857,     0.000000000000000,     0.000000000000000 ] # a
- [     0.000000000000000,     7.817308854131857,     0.000000000000000 ] # b
- [     0.000000000000000,     0.000000000000000,     7.817308854131857 ] # c
points:
- symbol: Sn # 1
  coordinates: [  0.000000000000000,  0.000000000000000,  0.000000000000000 ]
  mass: 118.710000
- symbol: O # 2
  coordinates: [  0.000000000000000,  0.500000000000000,  0.000000000000000 ]
  mass: 15.999400
- symbol: O # 3
  coordinates: [  0.000000000000000,  0.000000000000000,  0.500000000000000 ]
  mass: 15.999400
- symbol: O # 4
  coordinates: [  0.500000000000000,  0.000000000000000,  0.000000000000000 ]
  mass: 15.999400
- symbol: Ba # 5
  coordinates: [  0.500000000000000,  0.500000000000000,  0.500000000000000 ]
  mass: 137.327000

phonon:
- q-position: [    0.0000000,    0.5000000,    0.0000000 ]
  distance:    0.0000000
  band:
  - # 1
    frequency:    2.7243778066
    eigenvector:
    - # atom 1
      - [  0.00000000000000,  0.00000000000000 ]
      - [  0.00000000000000, -0.00000000000000 ]
      - [ -0.00000000000000, -0.00000000000000 ]
    - # atom 2
      - [  0.00012189035092,  0.00003651069165 ]
      - [ -0.00000000000000, -0.00000000000000 ]
      - [ -0.01538560985730,  0.00148688124598 ]
    - # atom 3
      - [  0.00000000000000, -0.00000000000000 ]
      - [ -0.00000000000000, -0.00000000000000 ]
      - [ -0.00000000000000, -0.00000000000000 ]
    - # atom 4
      - [  0.00000000000000, -0.00000000000000 ]
      - [  0.00000000000000, -0.00000000000000 ]
      - [ -0.00000000000000, -0.00000000000000 ]
    - # atom 5
      - [ -0.00788441314327, -0.00236167485702 ]
      - [ -0.00000000000000, -0.00000000000000 ]
      - [  0.99521006918160, -0.09617813017521 ]
  - # 2
    frequency:    2.7243778066
    eigenvector:
    - # atom 1
      - [  0.00000000000000,  0.00000000000000 ]
      - [  0.00000000000000,  0.00000000000000 ]
      - [ -0.00000000000000,  0.00000000000000 ]
    - # atom 2
      - [  0.01478343299157,  0.00451419045949 ]
      - [ -0.00000000000000, -0.00000000000000 ]
      - [  0.00012671444772, -0.00001156447107 ]
    - # atom 3
      - [  0.00000000000000, -0.00000000000000 ]
      - [ -0.00000000000000,  0.00000000000000 ]
      - [ -0.00000000000000,  0.00000000000000 ]
    - # atom 4
      - [  0.00000000000000, -0.00000000000000 ]
      - [ -0.00000000000000, -0.00000000000000 ]
      - [ -0.00000000000000,  0.00000000000000 ]
    - # atom 5
      - [ -0.95625857582096, -0.29199803200246 ]
      - [ -0.00000000000000, -0.00000000000000 ]
      - [ -0.00819645730361,  0.00074804171960 ]
  - # 3
    frequency:    3.8971395416
    eigenvector:
    - # atom 1
      - [ -0.09022476476107,  0.00000000000000 ]
      - [ -0.00000000000000, -0.00000000000000 ]
      - [  0.88387223110720, -0.00000000000000 ]
    - # atom 2
      - [ -0.00000000000000, -0.00000000000000 ]
      - [  0.00000000000000,  0.00000000000000 ]
      - [  0.00000000000000, -0.00000000000000 ]
    - # atom 3
      - [ -0.03807856968784,  0.00000000000000 ]
      - [ -0.00000000000000, -0.00000000000000 ]
      - [  0.26325929877458, -0.00000000000000 ]
    - # atom 4
      - [ -0.02687323740598, -0.00000000000000 ]
      - [ -0.00000000000000, -0.00000000000000 ]
      - [  0.37303051370090, -0.00000000000000 ]
    - # atom 5
      - [ -0.00000000000000, -0.00000000000000 ]
      - [  0.00000000000000, -0.00000000000000 ]
      - [  0.00000000000000, -0.00000000000000 ]
  - # 4
    frequency:    3.8971395416
    eigenvector:
    - # atom 1
      - [  0.88387223110720,  0.00000000000000 ]
      - [  0.00000000000000, -0.00000000000000 ]
      - [  0.09022476476107, -0.00000000000000 ]
    - # atom 2
      - [ -0.00000000000000, -0.00000000000000 ]
      - [  0.00000000000000,  0.00000000000000 ]
      - [  0.00000000000000, -0.00000000000000 ]
    - # atom 3
      - [  0.37303051370090,  0.00000000000000 ]
      - [  0.00000000000000, -0.00000000000000 ]
      - [  0.02687323740598, -0.00000000000000 ]
    - # atom 4
      - [  0.26325929877458,  0.00000000000000 ]
      - [  0.00000000000000, -0.00000000000000 ]
      - [  0.03807856968784, -0.00000000000000 ]
    - # atom 5
      - [  0.00000000000000,  0.00000000000000 ]
      - [  0.00000000000000,  0.00000000000000 ]
      - [  0.00000000000000, -0.00000000000000 ]
  - # 5
    frequency:    4.4502101310
    eigenvector:
    - # atom 1
      - [ -0.00000000000000,  0.00000000000000 ]
      - [ -0.00000000000000, -0.00000000000000 ]
      - [  0.00000000000000, -0.00000000000000 ]
    - # atom 2
      - [  0.00000000000000, -0.00000000000000 ]
      - [ -0.00000000000000,  0.09844601813211 ]
      - [ -0.00000000000000,  0.00000000000000 ]
    - # atom 3
      - [ -0.00000000000000,  0.00000000000000 ]
      - [ -0.00000000000000, -0.00000000000000 ]
      - [  0.00000000000000, -0.00000000000000 ]
    - # atom 4
      - [ -0.00000000000000, -0.00000000000000 ]
      - [ -0.00000000000000, -0.00000000000000 ]
      - [  0.00000000000000, -0.00000000000000 ]
    - # atom 5
      - [ -0.00000000000000, -0.00000000000000 ]
      - [ -0.00000000000000,  0.99514239258205 ]
      - [ -0.00000000000000,  0.00000000000000 ]
  - # 6
    frequency:    6.5535271603
    eigenvector:
    - # atom 1
      - [ -0.00000000000000,  0.00000000000000 ]
      - [  0.89806841936285, -0.00000000000000 ]
      - [  0.00000000000000, -0.00000000000000 ]
    - # atom 2
      - [  0.00000000000000,  0.00000000000000 ]
      - [ -0.00000000000000, -0.00000000000000 ]
      - [ -0.00000000000000, -0.00000000000000 ]
    - # atom 3
      - [  0.00000000000000,  0.00000000000000 ]
      - [  0.31102501036340,  0.00000000000000 ]
      - [  0.00000000000000, -0.00000000000000 ]
    - # atom 4
      - [  0.00000000000000,  0.00000000000000 ]
      - [  0.31102501036340, -0.00000000000000 ]
      - [  0.00000000000000, -0.00000000000000 ]
    - # atom 5
      - [  0.00000000000000, -0.00000000000000 ]
      - [  0.00000000000000,  0.00000000000000 ]
      - [ -0.00000000000000, -0.00000000000000 ]
  - # 7
    frequency:    8.6811882721
    eigenvector:
    - # atom 1
      - [ -0.00000000000000,  0.00000000000000 ]
      - [ -0.00000000000000, -0.00000000000000 ]
      - [ -0.00000000000000, -0.00000000000000 ]
    - # atom 2
      - [  0.42059181353947,  0.81780612591443 ]
      - [  0.00000000000000,  0.00000000000000 ]
      - [ -0.31902884180000,  0.22864234276124 ]
    - # atom 3
      - [  0.00000000000000,  0.00000000000000 ]
      - [  0.00000000000003,  0.00000000000000 ]
      - [  0.00000000000000,  0.00000000000000 ]
    - # atom 4
      - [  0.00000000000000, -0.00000000000000 ]
      - [ -0.00000000000003, -0.00000000000000 ]
      - [  0.00000000000000,  0.00000000000000 ]
    - # atom 5
      - [  0.00650220667242,  0.01264300511205 ]
      - [  0.00000000000000, -0.00000000000000 ]
      - [ -0.00493207760367,  0.00353473300916 ]
  - # 8
    frequency:    8.6811882721
    eigenvector:
    - # atom 1
      - [  0.00000000000000,  0.00000000000000 ]
      - [  0.00000000000000,  0.00000000000000 ]
      - [ -0.00000000000000,  0.00000000000001 ]
    - # atom 2
      - [ -0.17871355070570, -0.34945413089240 ]
      - [ -0.00000000000000,  0.00000000000000 ]
      - [ -0.74870057234451,  0.53399605445227 ]
    - # atom 3
      - [ -0.00000000000000, -0.00000000000000 ]
      - [ -0.00000000000003,  0.00000000000001 ]
      - [  0.00000000000000, -0.00000000000000 ]
    - # atom 4
      - [ -0.00000000000000,  0.00000000000000 ]
      - [  0.00000000000003, -0.00000000000001 ]
      - [  0.00000000000001, -0.00000000000001 ]
    - # atom 5
      - [ -0.00276285083172, -0.00540244224554 ]
      - [ -0.00000000000000, -0.00000000000000 ]
      - [ -0.01157465671092,  0.00825539774321 ]
  - # 9
    frequency:    8.7473387645
    eigenvector:
    - # atom 1
      - [  0.40751709703290,  0.00000000000000 ]
      - [  0.00000000000000, -0.00000000000000 ]
      - [  0.07316423390117, -0.00000000000000 ]
    - # atom 2
      - [  0.00000000000000,  0.00000000000000 ]
      - [ -0.00000000000000,  0.00000000000000 ]
      - [ -0.00000000000000, -0.00000000000000 ]
    - # atom 3
      - [ -0.88941133795230,  0.00000000000000 ]
      - [  0.00000000000000, -0.00000000000000 ]
      - [ -0.01937868188577,  0.00000000000000 ]
    - # atom 4
      - [ -0.10793722240131, -0.00000000000000 ]
      - [ -0.00000000000000,  0.00000000000000 ]
      - [ -0.15968188730753,  0.00000000000000 ]
    - # atom 5
      - [  0.00000000000000,  0.00000000000000 ]
      - [ -0.00000000000000,  0.00000000000000 ]
      - [ -0.00000000000000, -0.00000000000000 ]
  - # 10
    frequency:    8.7473387645
    eigenvector:
    - # atom 1
      - [  0.07316423390117,  0.00000000000000 ]
      - [ -0.00000000000000,  0.00000000000000 ]
      - [ -0.40751709703290,  0.00000000000000 ]
    - # atom 2
      - [ -0.00000000000001,  0.00000000000000 ]
      - [  0.00000000000000,  0.00000000000000 ]
      - [  0.00000000000001,  0.00000000000000 ]
    - # atom 3
      - [ -0.15968188730753,  0.00000000000000 ]
      - [ -0.00000000000001,  0.00000000000000 ]
      - [  0.10793722240132, -0.00000000000000 ]
    - # atom 4
      - [ -0.01937868188577,  0.00000000000000 ]
      - [  0.00000000000001, -0.00000000000000 ]
      - [  0.88941133795230, -0.00000000000000 ]
    - # atom 5
      - [ -0.00000000000000,  0.00000000000000 ]
      - [  0.00000000000000, -0.00000000000000 ]
      - [  0.00000000000000,  0.00000000000000 ]
  - # 11
    frequency:    8.8005243181
    eigenvector:
    - # atom 1
      - [  0.00000000000000,  0.00000000000000 ]
      - [  0.00000000000000,  0.00000000000000 ]
      - [ -0.00000000000000, -0.00000000000000 ]
    - # atom 2
      - [ -0.00000000000002, -0.00000000000005 ]
      - [  0.00000000000000, -0.00000000000000 ]
      - [ -0.00000000000003, -0.00000000000000 ]
    - # atom 3
      - [ -0.00000000000000, -0.00000000000000 ]
      - [  0.70710678118655, -0.00000000000004 ]
      - [  0.00000000000000,  0.00000000000000 ]
    - # atom 4
      - [ -0.00000000000000,  0.00000000000000 ]
      - [ -0.70710678118655,  0.00000000000004 ]
      - [  0.00000000000001,  0.00000000000000 ]
    - # atom 5
      - [ -0.00000000000000, -0.00000000000000 ]
      - [ -0.00000000000000, -0.00000000000000 ]
      - [ -0.00000000000000, -0.00000000000000 ]
  - # 12
    frequency:   15.8069938824
    eigenvector:
    - # atom 1
      - [ -0.00000000000000,  0.00000000000000 ]
      - [  0.43985578789316, -0.00000000000000 ]
      - [ -0.00000000000000,  0.00000000000000 ]
    - # atom 2
      - [  0.00000000000000,  0.00000000000000 ]
      - [ -0.00000000000000, -0.00000000000000 ]
      - [  0.00000000000000,  0.00000000000000 ]
    - # atom 3
      - [ -0.00000000000000,  0.00000000000000 ]
      - [ -0.63503026930096,  0.00000000000000 ]
      - [  0.00000000000000,  0.00000000000000 ]
    - # atom 4
      - [  0.00000000000000, -0.00000000000000 ]
      - [ -0.63503026930096,  0.00000000000000 ]
      - [ -0.00000000000000, -0.00000000000000 ]
    - # atom 5
      - [  0.00000000000000,  0.00000000000000 ]
      - [  0.00000000000000,  0.00000000000000 ]
      - [  0.00000000000000, -0.00000000000000 ]
  - # 13
    frequency:   18.4937670948
    eigenvector:
    - # atom 1
      - [  0.00170370517636,  0.00000000000000 ]
      - [ -0.00000000000000,  0.00000000000000 ]
      - [ -0.19799817876334,  0.00000000000000 ]
    - # atom 2
      - [ -0.00000000000000, -0.00000000000000 ]
      - [  0.00000000000000,  0.00000000000000 ]
      - [  0.00000000000000,  0.00000000000000 ]
    - # atom 3
      - [  0.00178106403846, -0.00000000000000 ]
      - [  0.00000000000000, -0.00000000000000 ]
      - [  0.95805972344954, -0.00000000000000 ]
    - # atom 4
      - [ -0.00824376931294,  0.00000000000000 ]
      - [  0.00000000000000, -0.00000000000000 ]
      - [ -0.20698853344393,  0.00000000000000 ]
    - # atom 5
      - [ -0.00000000000000, -0.00000000000000 ]
      - [ -0.00000000000000,  0.00000000000000 ]
      - [  0.00000000000000, -0.00000000000000 ]
  - # 14
    frequency:   18.4937670948
    eigenvector:
    - # atom 1
      - [ -0.19799817876334,  0.00000000000000 ]
      - [ -0.00000000000000,  0.00000000000000 ]
      - [ -0.00170370517636,  0.00000000000000 ]
    - # atom 2
      - [  0.00000000000000, -0.00000000000000 ]
      - [  0.00000000000000,  0.00000000000000 ]
      - [  0.00000000000000,  0.00000000000000 ]
    - # atom 3
      - [ -0.20698853344393, -0.00000000000000 ]
      - [  0.00000000000000, -0.00000000000000 ]
      - [  0.00824376931294, -0.00000000000000 ]
    - # atom 4
      - [  0.95805972344954,  0.00000000000000 ]
      - [  0.00000000000000, -0.00000000000000 ]
      - [ -0.00178106403846,  0.00000000000000 ]
    - # atom 5
      - [ -0.00000000000000,  0.00000000000000 ]
      - [ -0.00000000000000, -0.00000000000000 ]
      - [  0.00000000000000, -0.00000000000000 ]
  - # 15
    frequency:   21.2268225300
    eigenvector:
    - # atom 1
      - [  0.00000000000000,  0.00000000000000 ]
      - [  0.00000000000000,  0.00000000000000 ]
      - [ -0.00000000000000,  0.00000000000000 ]
    - # atom 2
      - [ -0.00000000000000, -0.00000000000000 ]
      - [ -0.00000000000000,  0.99514239258205 ]
      - [  0.00000000000000, -0.00000000000000 ]
    - # atom 3
      - [  0.00000000000000, -0.00000000000000 ]
      - [ -0.00000000000000, -0.00000000000000 ]
      - [ -0.00000000000000, -0.00000000000000 ]
    - # atom 4
      - [ -0.00000000000000,  0.00000000000000 ]
      - [ -0.00000000000000, -0.00000000000000 ]
      - [ -0.00000000000000,  0.00000000000000 ]
    - # atom 5
      - [ -0.00000000000000, -0.00000000000000 ]
      - [  0.00000000000000, -0.09844601813211 ]
      - [ -0.00000000000000,  0.00000000000000 ]

- q-position: [    0.0000000,    0.4900000,    0.0000000 ]
  distance:    0.0012792
  band:
  - # 1
    frequency:    2.7232619298
    eigenvector:
    - # atom 1
      - [ -0.02595249340231,  0.00000000000000 ]
      - [  0.00000000000000,  0.00000000000000 ]
      - [  0.00000332525085, -0.00000000015921 ]
    - # atom 2
      - [  0.01517847042218, -0.00000000000000 ]
      - [ -0.00000000000000,  0.00000000000000 ]
      - [ -0.00000194479277,  0.00000000009311 ]
    - # atom 3
      - [ -0.00949109459483, -0.00000000000000 ]
      - [  0.00000000000000,  0.00000000000000 ]
      - [  0.00000098401571, -0.00000000004711 ]
    - # atom 4
      - [ -0.00767992021290, -0.00000000000000 ]
      - [  0.00000000000000,  0.00000000000000 ]
      - [  0.00000121607854, -0.00000000005822 ]
    - # atom 5
      - [ -0.99947336315376,  0.00000000000000 ]
      - [  0.00000000000000,  0.00000000000000 ]
      - [  0.00012806089944, -0.00000000613135 ]
  - # 2
    frequency:    2.7232619298
    eigenvector:
    - # atom 1
      - [  0.00000332525085,  0.00000000000000 ]
      - [ -0.00000000000000, -0.00000000000000 ]
      - [  0.02595249337257, -0.00000124256316 ]
    - # atom 2
      - [ -0.00000194479278,  0.00000000000000 ]
      - [  0.00000000000000, -0.00000000000000 ]
      - [ -0.01517847040478,  0.00000072672047 ]
    - # atom 3
      - [  0.00000121607854,  0.00000000000000 ]
      - [  0.00000000000000,  0.00000000000000 ]
      - [  0.00767992020410, -0.00000036770208 ]
    - # atom 4
      - [  0.00000098401571,  0.00000000000000 ]
      - [ -0.00000000000000, -0.00000000000000 ]
      - [  0.00949109458395, -0.00000045441817 ]
    - # atom 5
      - [  0.00012806089959, -0.00000000000000 ]
      - [  0.00000000000000, -0.00000000000000 ]
      - [  0.99947336200819, -0.00004785315851 ]
  - # 3
    frequency:    3.8969450097
    eigenvector:
    - # atom 1
      - [  0.88802074053101,  0.00000000000000 ]
      - [ -0.00000000000000,  0.00000000000000 ]
      - [ -0.00189919710573, -0.00000059882745 ]
    - # atom 2
      - [  0.01064746221876,  0.00000000000000 ]
      - [ -0.00000000000000,  0.00000000000000 ]
      - [ -0.00002277157335, -0.00000000718000 ]
    - # atom 3
      - [  0.37483076138395, -0.00000000000000 ]
      - [ -0.00000000000000,  0.00000000000000 ]
      - [ -0.00056580862388, -0.00000017840262 ]
    - # atom 4
      - [  0.26455905585559, -0.00000000000000 ]
      - [ -0.00000000000000, -0.00000000000000 ]
      - [ -0.00080164512456, -0.00000025276318 ]
    - # atom 5
      - [ -0.02848909027797,  0.00000000000000 ]
      - [ -0.00000000000000,  0.00000000000000 ]
      - [  0.00006092920506,  0.00000001921132 ]
  - # 4
    frequency:    3.8969450097
    eigenvector:
    - # atom 1
      - [ -0.00189919720014,  0.00000000000000 ]
      - [ -0.00000000000000,  0.00000000000000 ]
      - [ -0.88802069638857, -0.00027999788208 ]
    - # atom 2
      - [ -0.00002277157448, -0.00000000000000 ]
      - [ -0.00000000000000,  0.00000000000000 ]
      - [ -0.01064746168948, -0.00000335720410 ]
    - # atom 3
      - [ -0.00080164516441,  0.00000000000000 ]
      - [ -0.00000000000000, -0.00000000000000 ]
      - [ -0.26455904270467, -0.00008341694281 ]
    - # atom 4
      - [ -0.00056580865200, -0.00000000000000 ]
      - [  0.00000000000000,  0.00000000000000 ]
      - [ -0.37483074275156, -0.00011818622532 ]
    - # atom 5
      - [  0.00006092920809, -0.00000000000000 ]
      - [ -0.00000000000001,  0.00000000000000 ]
      - [  0.02848908886181,  0.00000898276873 ]
  - # 5
    frequency:    4.4476444412
    eigenvector:
    - # atom 1
      - [ -0.00000000000000,  0.00000000000000 ]
      - [ -0.01272006465700,  0.00935510793634 ]
      - [  0.00000000000001, -0.00000000000000 ]
    - # atom 2
      - [  0.00000000000000, -0.00000000000000 ]
      - [ -0.07933808308155,  0.05835004386411 ]
      - [  0.00000000000000,  0.00000000000000 ]
    - # atom 3
      - [ -0.00000000000000,  0.00000000000000 ]
      - [ -0.00706325470253,  0.00519474640309 ]
      - [  0.00000000000000, -0.00000000000000 ]
    - # atom 4
      - [ -0.00000000000000, -0.00000000000000 ]
      - [ -0.00706325470253,  0.00519474640309 ]
      - [  0.00000000000000, -0.00000000000000 ]
    - # atom 5
      - [ -0.00000000000000,  0.00000000000000 ]
      - [ -0.80150747218843,  0.58947726417255 ]
      - [ -0.00000000000000,  0.00000000000000 ]
  - # 6
    frequency:    6.5517652997
    eigenvector:
    - # atom 1
      - [  0.00000000000000,  0.00000000000000 ]
      - [  0.89797476060376,  0.00322761213739 ]
      - [ -0.00000000000000, -0.00000000000000 ]
    - # atom 2
      - [  0.00000000000000,  0.00000000000000 ]
      - [  0.00595866872023,  0.00002141738535 ]
      - [ -0.00000000000000,  0.00000000000000 ]
    - # atom 3
      - [  0.00000000000000,  0.00000000000000 ]
      - [  0.31078936908222,  0.00111707765500 ]
      - [ -0.00000000000000, -0.00000000000000 ]
    - # atom 4
      - [  0.00000000000000,  0.00000000000000 ]
      - [  0.31078936908222,  0.00111707765500 ]
      - [ -0.00000000000000, -0.00000000000000 ]
    - # atom 5
      - [  0.00000000000000, -0.00000000000000 ]
      - [ -0.02031848220963, -0.00007303120608 ]
      - [ -0.00000000000000, -0.00000000000000 ]
  - # 7
    frequency:    8.6792270251
    eigenvector:
    - # atom 1
      - [  0.00004760245399,  0.00000000000000 ]
      - [ -0.00000000000000, -0.00000000000000 ]
      - [ -0.04879927025351,  0.00021987098497 ]
    - # atom 2
      - [  0.00096531702420,  0.00000000000000 ]
      - [  0.00000000000000, -0.00000000000000 ]
      - [ -0.98958693075090,  0.00445870301008 ]
    - # atom 3
      - [ -0.00013064152732, -0.00000000000000 ]
      - [ -0.00000000000001,  0.00000000000000 ]
      - [  0.01224971378111, -0.00005519255966 ]
    - # atom 4
      - [ -0.00001194928600,  0.00000000000000 ]
      - [  0.00000000000001, -0.00000000000000 ]
      - [  0.13392610386914, -0.00060342017858 ]
    - # atom 5
      - [  0.00001475610529,  0.00000000000000 ]
      - [  0.00000000000000,  0.00000000000000 ]
      - [ -0.01512710185351,  0.00006815697790 ]
  - # 8
    frequency:    8.6792270251
    eigenvector:
    - # atom 1
      - [  0.04879976557859,  0.00000000000000 ]
      - [ -0.00000000000000,  0.00000000000000 ]
      - [  0.00004760197082, -0.00000021447641 ]
    - # atom 2
      - [  0.98959697531142, -0.00000000000000 ]
      - [  0.00000000000000,  0.00000000000000 ]
      - [  0.00096530722609, -0.00000434930788 ]
    - # atom 3
      - [ -0.13392746325337,  0.00000000000000 ]
      - [ -0.00000000000000,  0.00000000000000 ]
      - [ -0.00001194916471,  0.00000005383840 ]
    - # atom 4
      - [ -0.01224983811885, -0.00000000000000 ]
      - [  0.00000000000000, -0.00000000000000 ]
      - [ -0.00013064020129,  0.00000058861515 ]
    - # atom 5
      - [  0.01512725539746, -0.00000000000000 ]
      - [  0.00000000000000, -0.00000000000000 ]
      - [  0.00001475595552, -0.00000006648473 ]
  - # 9
    frequency:    8.7483259406
    eigenvector:
    - # atom 1
      - [ -0.41128232043736,  0.00000000000000 ]
      - [  0.00000000000000,  0.00000000000000 ]
      - [  0.00204056611148,  0.00000146382104 ]
    - # atom 2
      - [  0.14251979983263, -0.00000000000000 ]
      - [  0.00000000000000, -0.00000000000000 ]
      - [ -0.00070710813303, -0.00000050725128 ]
    - # atom 3
      - [  0.89365137072142,  0.00000000000000 ]
      - [  0.00000000000000,  0.00000000000000 ]
      - [ -0.00054089571900, -0.00000038801710 ]
    - # atom 4
      - [  0.10901918108608, -0.00000000000000 ]
      - [ -0.00000000000000, -0.00000000000000 ]
      - [ -0.00443382711085, -0.00000318065139 ]
    - # atom 5
      - [  0.00351989967610, -0.00000000000000 ]
      - [  0.00000000000000,  0.00000000000000 ]
      - [ -0.00001746388706, -0.00000001252790 ]
  - # 10
    frequency:    8.7483259406
    eigenvector:
    - # atom 1
      - [ -0.00204056663652,  0.00000000000000 ]
      - [  0.00000000000000,  0.00000000000000 ]
      - [ -0.41128221461328, -0.00029503751796 ]
    - # atom 2
      - [  0.00070710831497,  0.00000000000000 ]
      - [  0.00000000000000,  0.00000000000000 ]
      - [  0.14251976316187,  0.00010223801493 ]
    - # atom 3
      - [  0.00443382825169, -0.00000000000000 ]
      - [ -0.00000000000001, -0.00000000000000 ]
      - [  0.10901915303514,  0.00007820600838 ]
    - # atom 4
      - [  0.00054089585818,  0.00000000000000 ]
      - [  0.00000000000001,  0.00000000000000 ]
      - [  0.89365114078244,  0.00064106981808 ]
    - # atom 5
      - [  0.00001746389156,  0.00000000000000 ]
      - [  0.00000000000000, -0.00000000000000 ]
      - [  0.00351989877042,  0.00000252503551 ]
  - # 11
    frequency:    8.7996211255
    eigenvector:
    - # atom 1
      - [ -0.00000000000000,  0.00000000000000 ]
      - [ -0.00000000000000, -0.00000000000000 ]
      - [  0.00000000000001,  0.00000000000000 ]
    - # atom 2
      - [  0.00000000000000, -0.00000000000000 ]
      - [  0.00000000000000,  0.00000000000000 ]
      - [  0.00000000000000,  0.00000000000001 ]
    - # atom 3
      - [  0.00000000000000,  0.00000000000000 ]
      - [ -0.50250353257523, -0.49748386883336 ]
      - [ -0.00000000000000, -0.00000000000000 ]
    - # atom 4
      - [  0.00000000000000,  0.00000000000000 ]
      - [  0.50250353257523,  0.49748386883336 ]
      - [ -0.00000000000001, -0.00000000000000 ]
    - # atom 5
      - [  0.00000000000000, -0.00000000000000 ]
      - [  0.00000000000000, -0.00000000000000 ]
      - [ -0.00000000000000,  0.00000000000000 ]
  - # 12
    frequency:   15.8001517940
    eigenvector:
    - # atom 1
      - [ -0.00000000000000,  0.00000000000000 ]
      - [ -0.43951348687852,  0.00201510577789 ]
      - [ -0.00000000000000, -0.00000000000000 ]
    - # atom 2
      - [ -0.00000000000000, -0.00000000000000 ]
      - [ -0.01673394189609,  0.00007672270365 ]
      - [ -0.00000000000000, -0.00000000000000 ]
    - # atom 3
      - [ -0.00000000000000, -0.00000000000000 ]
      - [  0.63502767350598, -0.00291151004965 ]
      - [ -0.00000000000000, -0.00000000000000 ]
    - # atom 4
      - [  0.00000000000000,  0.00000000000000 ]
      - [  0.63502767350598, -0.00291151004965 ]
      - [  0.00000000000000,  0.00000000000000 ]
    - # atom 5
      - [ -0.00000000000000, -0.00000000000000 ]
      - [ -0.00256073165918,  0.00001174058434 ]
      - [ -0.00000000000000,  0.00000000000000 ]
  - # 13
    frequency:   18.4938891533
    eigenvector:
    - # atom 1
      - [  0.00001936694389,  0.00000000000000 ]
      - [  0.00000000000000, -0.00000000000000 ]
      - [  0.19799257009477, -0.00149563398739 ]
    - # atom 2
      - [  0.00000062437294,  0.00000000000000 ]
      - [  0.00000000000000, -0.00000000000000 ]
      - [  0.00638310326529, -0.00004821790123 ]
    - # atom 3
      - [  0.00002024582617, -0.00000000000000 ]
      - [ -0.00000000000000,  0.00000000000000 ]
      - [ -0.95805077478632,  0.00723710642138 ]
    - # atom 4
      - [ -0.00009371319132,  0.00000000000000 ]
      - [ -0.00000000000000,  0.00000000000000 ]
      - [  0.20697757883014, -0.00156350665774 ]
    - # atom 5
      - [  0.00000003442946, -0.00000000000000 ]
      - [  0.00000000000000, -0.00000000000000 ]
      - [  0.00035197997123, -0.00000265885335 ]
  - # 14
    frequency:   18.4938891533
    eigenvector:
    - # atom 1
      - [ -0.19799821901663,  0.00000000000000 ]
      - [  0.00000000000000, -0.00000000000000 ]
      - [  0.00001936639135, -0.00000014629354 ]
    - # atom 2
      - [ -0.00638328538148, -0.00000000000000 ]
      - [  0.00000000000000,  0.00000000000000 ]
      - [  0.00000062435513, -0.00000000471637 ]
    - # atom 3
      - [ -0.20698348410310, -0.00000000000000 ]
      - [ -0.00000000000000,  0.00000000000000 ]
      - [ -0.00009371051767,  0.00000070788836 ]
    - # atom 4
      - [  0.95807810891285,  0.00000000000000 ]
      - [ -0.00000000000000,  0.00000000000000 ]
      - [  0.00002024524855, -0.00000015293241 ]
    - # atom 5
      - [ -0.00035199001356,  0.00000000000000 ]
      - [ -0.00000000000000, -0.00000000000000 ]
      - [  0.00000003442847, -0.00000000026007 ]
  - # 15
    frequency:   21.2253718530
    eigenvector:
    - # atom 1
      - [  0.00000000000000,  0.00000000000000 ]
      - [ -0.00094704556082, -0.01430143539727 ]
      - [  0.00000000000000, -0.00000000000000 ]
    - # atom 2
      - [  0.00000000000000,  0.00000000000000 ]
      - [  0.06574389931284,  0.99280559213159 ]
      - [ -0.00000000000000,  0.00000000000000 ]
    - # atom 3
      - [  0.00000000000000, -0.00000000000000 ]
      - [  0.00052538302267,  0.00793386471405 ]
      - [ -0.00000000000000,  0.00000000000000 ]
    - # atom 4
      - [ -0.00000000000000,  0.00000000000000 ]
      - [  0.00052538302267,  0.00793386471405 ]
      - [  0.00000000000000, -0.00000000000000 ]
    - # atom 5
      - [  0.00000000000000,  0.00000000000000 ]
      - [ -0.00650196095989, -0.09818680163898 ]
      - [ -0.00000000000000,  0.00000000000000 ]

- q-position: [    0.0000000,    0.4800000,    0.0000000 ]
  distance:    0.0025584
  band:
  - # 1
    frequency:    2.7199131344
    eigenvector:
    - # atom 1
      - [ -0.05183890142348,  0.00000000000000 ]
      - [ -0.00000000000000,  0.00000000000000 ]
      - [ -0.00000111376982,  0.00000000037558 ]
    - # atom 2
      - [  0.01434193880786, -0.00000000000000 ]
      - [  0.00000000000000,  0.00000000000000 ]
      - [  0.00000030813961, -0.00000000010391 ]
    - # atom 3
      - [ -0.01895974857191, -0.00000000000000 ]
      - [ -0.00000000000000,  0.00000000000000 ]
      - [ -0.00000032980107,  0.00000000011121 ]
    - # atom 4
      - [ -0.01535014239431, -0.00000000000000 ]
      - [ -0.00000000000000,  0.00000000000000 ]
      - [ -0.00000040735423,  0.00000000013737 ]
    - # atom 5
      - [ -0.99825444536520,  0.00000000000000 ]
      - [  0.00000000000000,  0.00000000000000 ]
      - [ -0.00002144770909,  0.00000000723246 ]
  - # 2
    frequency:    2.7199131344
    eigenvector:
    - # atom 1
      - [ -0.00000111376989,  0.00000000000000 ]
      - [  0.00000000000000, -0.00000000000000 ]
      - [  0.05183889847610, -0.00001748077378 ]
    - # atom 2
      - [  0.00000030813962, -0.00000000000000 ]
      - [  0.00000000000000, -0.00000000000000 ]
      - [ -0.01434193799243,  0.00000483629438 ]
    - # atom 3
      - [ -0.00000040735425, -0.00000000000000 ]
      - [  0.00000000000000, -0.00000000000000 ]
      - [  0.01535014152155, -0.00000517627417 ]
    - # atom 4
      - [ -0.00000032980109,  0.00000000000000 ]
      - [  0.00000000000000,  0.00000000000000 ]
      - [  0.01895974749392, -0.00000639348186 ]
    - # atom 5
      - [ -0.00002144771031,  0.00000000000000 ]
      - [  0.00000000000000, -0.00000000000000 ]
      - [  0.99825438860800, -0.00033662480597 ]
  - # 3
    frequency:    3.8963625865
    eigenvector:
    - # atom 1
      - [  0.03433013789848, -0.00000000000000 ]
      - [ -0.00000000000000,  0.00000000000000 ]
      - [  0.88603302320354, -0.00003086505587 ]
    - # atom 2
      - [  0.00082338036823, -0.00000000000000 ]
      - [  0.00000000000000,  0.00000000000000 ]
      - [  0.02125077968126, -0.00000074027320 ]
    - # atom 3
      - [  0.01449636982982, -0.00000000000000 ]
      - [  0.00000000000000,  0.00000000000000 ]
      - [  0.26415874405309, -0.00000920199832 ]
    - # atom 4
      - [  0.01023506559343, -0.00000000000000 ]
      - [ -0.00000000000000,  0.00000000000000 ]
      - [  0.37413955119484, -0.00001303319160 ]
    - # atom 5
      - [ -0.00220363156426,  0.00000000000000 ]
      - [  0.00000000000000,  0.00000000000000 ]
      - [ -0.05687394389974,  0.00000198120997 ]