135  
3    

1    
  0.0200000000000000   0.0000000000000000   0.0000000000000000
  -0.0107522804    0.0000000000    0.0000000000
   0.0015322596    0.0000000000    0.0000000000
   0.0015248896    0.0000000000    0.0000000000
  -0.0002144504   -0.0000012400    0.0000000000
   0.0001061696    0.0002179100    0.0000000000
   0.0001063496   -0.0002172900    0.0000000000
  -0.0002144504    0.0000012400    0.0000000000
   0.0001061696   -0.0002179100    0.0000000000
   0.0001063496    0.0002172900    0.0000000000
  -0.0002144504    0.0000000000   -0.0000012400
   0.0001061696    0.0000000000    0.0002179100
   0.0001063496    0.0000000000   -0.0002172900
  -0.0001335404   -0.0000001000   -0.0000001000
   0.0000674396    0.0000458500    0.0000458500
   0.0000674596   -0.0000457400   -0.0000457400
  -0.0001335404    0.0000001000   -0.0000001000
   0.0000674396   -0.0000458500    0.0000458500
   0.0000674596    0.0000457400   -0.0000457400
  -0.0002144504    0.0000000000    0.0000012400
   0.0001061696    0.0000000000   -0.0002179100
   0.0001063496    0.0000000000    0.0002172900
  -0.0001335404   -0.0000001000    0.0000001000
   0.0000674396    0.0000458500   -0.0000458500
   0.0000674596   -0.0000457400    0.0000457400
  -0.0001335404    0.0000001000    0.0000001000
   0.0000674396   -0.0000458500   -0.0000458500
   0.0000674596    0.0000457400    0.0000457400
   0.0009197196   -0.0000080500    0.0000000000
  -0.0002916004   -0.0003663300    0.0000000000
  -0.0002907704    0.0003668700    0.0000000000
   0.0000634096    0.0000000000    0.0000000000
  -0.0000305804    0.0000000000    0.0000000000
  -0.0000307004    0.0000000000    0.0000000000
   0.0009197196    0.0000080500    0.0000000000
  -0.0002916004    0.0003663300    0.0000000000
  -0.0002907704   -0.0003668700    0.0000000000
   0.0001146896    0.0000005100    0.0000001800
  -0.0000604204   -0.0000402100   -0.0000598700
  -0.0000604004    0.0000403100    0.0000596700
   0.0000429296    0.0000000000    0.0000000600
  -0.0000214404    0.0000000000   -0.0000107400
  -0.0000214804    0.0000000000    0.0000107300
   0.0001146896   -0.0000005100    0.0000001800
  -0.0000604204    0.0000402100   -0.0000598700
  -0.0000604004   -0.0000403100    0.0000596700
   0.0001146896    0.0000005100   -0.0000001800
  -0.0000604204   -0.0000402100    0.0000598700
  -0.0000604004    0.0000403100   -0.0000596700
   0.0000429296    0.0000000000   -0.0000000600
  -0.0000214404    0.0000000000    0.0000107400
  -0.0000214804    0.0000000000   -0.0000107300
   0.0001146896   -0.0000005100   -0.0000001800
  -0.0000604204    0.0000402100    0.0000598700
  -0.0000604004   -0.0000403100   -0.0000596700
   0.0009197196    0.0000000000   -0.0000080500
  -0.0002916004    0.0000000000   -0.0003663300
  -0.0002907704    0.0000000000    0.0003668700
   0.0001146896    0.0000001800    0.0000005100
  -0.0000604204   -0.0000598700   -0.0000402100
  -0.0000604004    0.0000596700    0.0000403100
   0.0001146896   -0.0000001800    0.0000005100
  -0.0000604204    0.0000598700   -0.0000402100
  -0.0000604004   -0.0000596700    0.0000403100
   0.0000634096    0.0000000000    0.0000000000
  -0.0000305804    0.0000000000    0.0000000000
  -0.0000307004    0.0000000000    0.0000000000
   0.0000429296    0.0000000600    0.0000000000
  -0.0000214404   -0.0000107400    0.0000000000
  -0.0000214804    0.0000107300    0.0000000000
   0.0000429296   -0.0000000600    0.0000000000
  -0.0000214404    0.0000107400    0.0000000000
  -0.0000214804   -0.0000107300    0.0000000000
   0.0009197196    0.0000000000    0.0000080500
  -0.0002916004    0.0000000000    0.0003663300
  -0.0002907704    0.0000000000   -0.0003668700
   0.0001146896    0.0000001800   -0.0000005100
  -0.0000604204   -0.0000598700    0.0000402100
  -0.0000604004    0.0000596700   -0.0000403100
   0.0001146896   -0.0000001800   -0.0000005100
  -0.0000604204    0.0000598700    0.0000402100
  -0.0000604004   -0.0000596700   -0.0000403100
   0.0026714296    0.0000000000    0.0000000000
  -0.0003188704    0.0000000000    0.0000000000
   0.0024071296    0.0000000000    0.0000000000
   0.0001004996   -0.0000883200    0.0000000000
  -0.0001745904   -0.0000000600   -0.0000000000
   0.0000993796    0.0000882400    0.0000000000
   0.0001004996    0.0000883200    0.0000000000
  -0.0001745904    0.0000000600    0.0000000000
   0.0000993796   -0.0000882400   -0.0000000000
   0.0001004996    0.0000000000   -0.0000883200
  -0.0001745904    0.0000000000   -0.0000000600
   0.0000993796   -0.0000000000    0.0000882400
   0.0000375896   -0.0000507300   -0.0000507300
  -0.0000742404   -0.0000000200   -0.0000000200
   0.0000373196    0.0000505000    0.0000505000
   0.0000375896    0.0000507300   -0.0000507300
  -0.0000742404    0.0000000200   -0.0000000200
   0.0000373196   -0.0000505000    0.0000505000
   0.0001004996    0.0000000000    0.0000883200
  -0.0001745904   -0.0000000000    0.0000000600
   0.0000993796    0.0000000000   -0.0000882400
   0.0000375896   -0.0000507300    0.0000507300
  -0.0000742404   -0.0000000200    0.0000000200
   0.0000373196    0.0000505000   -0.0000505000
   0.0000375896    0.0000507300    0.0000507300
  -0.0000742404    0.0000000200    0.0000000200
   0.0000373196   -0.0000505000   -0.0000505000
   0.0000858396    0.0005467600    0.0005467600
   0.0002094196    0.0000000800    0.0000000800
   0.0000868896   -0.0005437200   -0.0005437200
  -0.0000332204    0.0000000000    0.0000113700
   0.0000663196    0.0000000000    0.0000000400
  -0.0000329704    0.0000000000   -0.0000114400
   0.0000858396   -0.0005467600    0.0005467600
   0.0002094196   -0.0000000800    0.0000000800
   0.0000868896    0.0005437200   -0.0005437200
  -0.0000332204    0.0000113700    0.0000000000
   0.0000663196    0.0000000400    0.0000000000
  -0.0000329704   -0.0000114400    0.0000000000
  -0.0000202404    0.0000000000    0.0000000000
   0.0000403796    0.0000000000    0.0000000000
  -0.0000199904    0.0000000000    0.0000000000
  -0.0000332204   -0.0000113700    0.0000000000
   0.0000663196   -0.0000000400    0.0000000000
  -0.0000329704    0.0000114400    0.0000000000
   0.0000858396    0.0005467600   -0.0005467600
   0.0002094196    0.0000000800   -0.0000000800
   0.0000868896   -0.0005437200    0.0005437200
  -0.0000332204    0.0000000000   -0.0000113700
   0.0000663196    0.0000000000   -0.0000000400
  -0.0000329704    0.0000000000    0.0000114400
   0.0000858396   -0.0005467600   -0.0005467600
   0.0002094196   -0.0000000800   -0.0000000800
   0.0000868896    0.0005437200    0.0005437200

28   
  0.0141421356237310   0.0141421356237310   0.0000000000000000
   0.0006553499    0.0017308499    0.0000000000
   0.0000544399    0.0001333699    0.0000000000
  -0.0004638201    0.0000079999    0.0000000000
   0.0006447899    0.0018580699    0.0000000000
  -0.0004664001    0.0000084999    0.0000000000
   0.0000522099    0.0001327999    0.0000000000
   0.0000448099   -0.0002255101    0.0000000000
  -0.0000216701   -0.0001238701    0.0000000000
  -0.0000216801   -0.0001231001    0.0000000000
   0.0000810899    0.0000705999    0.0002595400
  -0.0000142201    0.0000623099   -0.0000136900
  -0.0000711801   -0.0000093601    0.0000705600
   0.0000811299    0.0000707599   -0.0002588900
  -0.0000711601   -0.0000092601   -0.0000708800
  -0.0000143001    0.0000622699    0.0000139000
   0.0000303499   -0.0001234901    0.0000000200
  -0.0000151501   -0.0000525601   -0.0000075900
  -0.0000152201   -0.0000524701    0.0000075900
   0.0000810899    0.0000705999   -0.0002595400
  -0.0000142201    0.0000623099    0.0000136900
  -0.0000711801   -0.0000093601   -0.0000705600
   0.0000811299    0.0000707599    0.0002588900
  -0.0000711601   -0.0000092601    0.0000708800
  -0.0000143001    0.0000622699   -0.0000139000
   0.0000303499   -0.0001234901   -0.0000000200
  -0.0000151501   -0.0000525601    0.0000075900
  -0.0000152201   -0.0000524701   -0.0000075900
  -0.0016961401   -0.0063725901    0.0000000000
   0.0001120399   -0.0001552901    0.0000000000
   0.0001120099   -0.0001540801    0.0000000000
  -0.0000548501    0.0001762999    0.0000000000
   0.0000907599    0.0001447099    0.0000000000
  -0.0000122601    0.0000408499    0.0000000000
  -0.0000542601    0.0001778099    0.0000000000
  -0.0000127301    0.0000414599    0.0000000000
   0.0000901699    0.0001435399    0.0000000000
  -0.0000743801   -0.0001546801   -0.0000001400
   0.0000582299   -0.0000522901    0.0000513600
   0.0000582499   -0.0000521801   -0.0000513500
  -0.0000211601    0.0000926499    0.0000514600
   0.0000215199    0.0000371899    0.0000177100
  -0.0000001101    0.0000154699    0.0000039600
  -0.0000211001    0.0000926199   -0.0000515000
  -0.0000001701    0.0000155099   -0.0000040100
   0.0000215099    0.0000370999   -0.0000176400
  -0.0000743801   -0.0001546801    0.0000001400
   0.0000582299   -0.0000522901   -0.0000513600
   0.0000582499   -0.0000521801    0.0000513500
  -0.0000211601    0.0000926499   -0.0000514600
   0.0000215199    0.0000371899   -0.0000177100
  -0.0000001101    0.0000154699   -0.0000039600
  -0.0000211001    0.0000926199    0.0000515000
  -0.0000001701    0.0000155099    0.0000040100
   0.0000215099    0.0000370999    0.0000176400
  -0.0001516701    0.0002358699   -0.0006140200
   0.0000168299   -0.0000560801   -0.0000201300
   0.0000931699    0.0000065699   -0.0000958300
  -0.0001536101    0.0002352299    0.0006174900
   0.0000935299    0.0000064099    0.0000967600
   0.0000171599   -0.0000560001    0.0000197500
  -0.0000233901    0.0000792299   -0.0000000100
   0.0000113999    0.0000457299    0.0000094200
   0.0000114399    0.0000455599   -0.0000093700
  -0.0000233701   -0.0000202901    0.0000000000
   0.0000020099   -0.0000175301    0.0000000000
   0.0000208199   -0.0000027601    0.0000000000
  -0.0000234001   -0.0000203401    0.0000000000
   0.0000208099   -0.0000027901    0.0000000000
   0.0000020499   -0.0000175201    0.0000000000
  -0.0000121601    0.0000435899    0.0000000000
   0.0000060899    0.0000203599    0.0000000000
   0.0000061099    0.0000203199    0.0000000000
  -0.0001516701    0.0002358699    0.0006140200
   0.0000168299   -0.0000560801    0.0000201300
   0.0000931699    0.0000065699    0.0000958300
  -0.0001536101    0.0002352299   -0.0006174900
   0.0000935299    0.0000064099   -0.0000967600
   0.0000171599   -0.0000560001   -0.0000197500
  -0.0000233901    0.0000792299    0.0000000100
   0.0000113999    0.0000457299   -0.0000094200
   0.0000114399    0.0000455599    0.0000093700
  -0.0003817101   -0.0001340701    0.0000000000
   0.0000791099   -0.0000203301    0.0000000000
   0.0008442299    0.0006017699    0.0000000000
   0.0008584999    0.0006126099    0.0000000000
   0.0000793599   -0.0000203001    0.0000000000
  -0.0003786701   -0.0001380001    0.0000000000
  -0.0000203601    0.0000793599    0.0000000000
   0.0000435899    0.0000435899    0.0000000000
  -0.0000202701    0.0000791099    0.0000000000
  -0.0000828501   -0.0000558201   -0.0000069200
   0.0000455599   -0.0000101501   -0.0000093800
   0.0000333799    0.0000062799   -0.0000694300
   0.0000332999    0.0000061899    0.0000694500
   0.0000457299   -0.0000101501    0.0000094100
  -0.0000829301   -0.0000557501    0.0000069100
  -0.0000101701    0.0000456999    0.0000073800
   0.0000203399    0.0000203399    0.0000000100
  -0.0000101301    0.0000455799   -0.0000073700
  -0.0000828501   -0.0000558201    0.0000069200
   0.0000455599   -0.0000101501    0.0000093800
   0.0000333799    0.0000062799    0.0000694300
   0.0000332999    0.0000061899   -0.0000694500
   0.0000457299   -0.0000101501   -0.0000094100
  -0.0000829301   -0.0000557501   -0.0000069100
  -0.0000101701    0.0000456999   -0.0000073800
   0.0000203399    0.0000203399   -0.0000000100
  -0.0000101301    0.0000455799    0.0000073700
   0.0000319199    0.0002796799   -0.0001557800
  -0.0000838901    0.0000447499   -0.0000000200
   0.0000277899    0.0002780899    0.0001590300
  -0.0000318201   -0.0001444701   -0.0000818000
  -0.0000376701   -0.0000222501   -0.0000122500
   0.0000722399   -0.0000642501   -0.0000224900
   0.0000722299   -0.0000646801    0.0000228600
  -0.0000374801   -0.0000222701    0.0000121800
  -0.0000321201   -0.0001440201    0.0000812200
   0.0000188699    0.0000447799    0.0000000000
  -0.0000374501    0.0000241199    0.0000000000
   0.0000188099    0.0000446999    0.0000000000
  -0.0000034901   -0.0000296101    0.0000000000
  -0.0000175201   -0.0000120401    0.0000000000
   0.0000209399   -0.0000149301    0.0000000000
   0.0000209799   -0.0000149801    0.0000000000
  -0.0000175201   -0.0000120601    0.0000000000
  -0.0000035501   -0.0000295901    0.0000000000
   0.0000319199    0.0002796799    0.0001557800
  -0.0000838901    0.0000447499    0.0000000200
   0.0000277899    0.0002780899   -0.0001590300
  -0.0000318201   -0.0001444701    0.0000818000
  -0.0000376701   -0.0000222501    0.0000122500
   0.0000722399   -0.0000642501    0.0000224900
   0.0000722299   -0.0000646801   -0.0000228600
  -0.0000374801   -0.0000222701   -0.0000121800
  -0.0000321201   -0.0001440201   -0.0000812200

109  
  0.0200000000000000   0.0000000000000000   0.0000000000000000
   0.0000875099    0.0005437300    0.0005437300
   0.0000852299   -0.0005467300   -0.0005467300
   0.0002094699   -0.0000002900   -0.0000002900
   0.0000875099   -0.0005437300    0.0005437300
   0.0000852299    0.0005467300   -0.0005467300
   0.0002094699    0.0000002900   -0.0000002900
  -0.0000329201    0.0000000000    0.0000114300
  -0.0000332301    0.0000000000   -0.0000114200
   0.0000662599    0.0000000000   -0.0000000200
   0.0000875099    0.0005437300   -0.0005437300
   0.0000852299   -0.0005467300    0.0005467300
   0.0002094699   -0.0000002900    0.0000002900
   0.0000875099   -0.0005437300   -0.0005437300
   0.0000852299    0.0005467300    0.0005467300
   0.0002094699    0.0000002900    0.0000002900
  -0.0000329201    0.0000000000   -0.0000114300
  -0.0000332301    0.0000000000    0.0000114200
   0.0000662599    0.0000000000    0.0000000200
  -0.0000329201    0.0000114300   -0.0000000000
  -0.0000332301   -0.0000114200   -0.0000000000
   0.0000662599   -0.0000000200   -0.0000000000
  -0.0000329201   -0.0000114300   -0.0000000000
  -0.0000332301    0.0000114200   -0.0000000000
   0.0000662599    0.0000000200   -0.0000000000
  -0.0000199801    0.0000000000   -0.0000000000
  -0.0000202401    0.0000000000   -0.0000000000
   0.0000402599    0.0000000000   -0.0000000000
   0.0000377599    0.0000000000   -0.0002255900
   0.0000467299    0.0000000000    0.0002195400
  -0.0001185901    0.0000000000    0.0000003000
   0.0000282699    0.0000736800   -0.0000415600
   0.0000286599   -0.0000736900    0.0000416300
  -0.0000531301   -0.0000001300    0.0000000300
   0.0000282699   -0.0000736800   -0.0000415600
   0.0000286599    0.0000736900    0.0000416300
  -0.0000531301    0.0000001300    0.0000000300
   0.0000377599    0.0000000000    0.0002255900
   0.0000467299    0.0000000000   -0.0002195400
  -0.0001185901    0.0000000000   -0.0000003000
   0.0000282699    0.0000736800    0.0000415600
   0.0000286599   -0.0000736900   -0.0000416300
  -0.0000531301   -0.0000001300   -0.0000000300
   0.0000282699   -0.0000736800    0.0000415600
   0.0000286599    0.0000736900   -0.0000416300
  -0.0000531301    0.0000001300   -0.0000000300
   0.0000265499    0.0000000000   -0.0000000000
   0.0000267599    0.0000000000   -0.0000000000
  -0.0000529401    0.0000000000   -0.0000000000
   0.0000122499    0.0000172700   -0.0000000000
   0.0000123799   -0.0000172700   -0.0000000000
  -0.0000247701   -0.0000000300   -0.0000000000
   0.0000122499   -0.0000172700   -0.0000000000
   0.0000123799    0.0000172700   -0.0000000000
  -0.0000247701    0.0000000300   -0.0000000000
   0.0000377599   -0.0002255900   -0.0000000000
   0.0000467299    0.0002195400   -0.0000000000
  -0.0001185901    0.0000003000   -0.0000000000
   0.0000377599    0.0002255900   -0.0000000000
   0.0000467299   -0.0002195400   -0.0000000000
  -0.0001185901   -0.0000003000   -0.0000000000
   0.0000265499    0.0000000000   -0.0000000000
   0.0000267599    0.0000000000   -0.0000000000
  -0.0000529401    0.0000000000   -0.0000000000
   0.0000282699   -0.0000415600    0.0000736800
   0.0000286599    0.0000416300   -0.0000736900
  -0.0000531301    0.0000000300   -0.0000001300
   0.0000282699    0.0000415600    0.0000736800
   0.0000286599   -0.0000416300   -0.0000736900
  -0.0000531301   -0.0000000300   -0.0000001300
   0.0000122499    0.0000000000    0.0000172700
   0.0000123799    0.0000000000   -0.0000172700
  -0.0000247701    0.0000000000   -0.0000000300
   0.0000282699   -0.0000415600   -0.0000736800
   0.0000286599    0.0000416300    0.0000736900
  -0.0000531301    0.0000000300    0.0000001300
   0.0000282699    0.0000415600   -0.0000736800
   0.0000286599   -0.0000416300    0.0000736900
  -0.0000531301   -0.0000000300    0.0000001300
   0.0000122499    0.0000000000   -0.0000172700
   0.0000123799    0.0000000000    0.0000172700
  -0.0000247701    0.0000000000    0.0000000300
   0.0003944599   -0.0000007200   -0.0000007200
  -0.0001476201    0.0000566100    0.0000566100
  -0.0001475601   -0.0000562100   -0.0000562100
   0.0003944599    0.0000007200   -0.0000007200
  -0.0001476201   -0.0000566100    0.0000566100
  -0.0001475601    0.0000562100   -0.0000562100
   0.0000632799    0.0000000000   -0.0000000500
  -0.0000314101    0.0000000000    0.0000103500
  -0.0000316001    0.0000000000   -0.0000103300
   0.0003944599   -0.0000007200    0.0000007200
  -0.0001476201    0.0000566100   -0.0000566100
  -0.0001475601   -0.0000562100    0.0000562100
   0.0003944599    0.0000007200    0.0000007200
  -0.0001476201   -0.0000566100   -0.0000566100
  -0.0001475601    0.0000562100    0.0000562100
   0.0000632799    0.0000000000    0.0000000500
  -0.0000314101    0.0000000000   -0.0000103500
  -0.0000316001    0.0000000000    0.0000103300
   0.0000632799   -0.0000000500   -0.0000000000
  -0.0000314101    0.0000103500   -0.0000000000
  -0.0000316001   -0.0000103300   -0.0000000000
   0.0000632799    0.0000000500   -0.0000000000
  -0.0000314101   -0.0000103500   -0.0000000000
  -0.0000316001    0.0000103300   -0.0000000000
   0.0000341699    0.0000000000   -0.0000000000
  -0.0000169901    0.0000000000   -0.0000000000
  -0.0000171101    0.0000000000   -0.0000000000
  -0.0027557801    0.0000000000   -0.0000000000
   0.0005200099    0.0000000000   -0.0000000000
   0.0005149699    0.0000000000   -0.0000000000
  -0.0001818301   -0.0000008500   -0.0000000000
   0.0000782399    0.0000746100   -0.0000000000
   0.0000784299   -0.0000742700   -0.0000000000
  -0.0001818301    0.0000008500   -0.0000000000
   0.0000782399   -0.0000746100   -0.0000000000
   0.0000784299    0.0000742700   -0.0000000000
  -0.0001818301    0.0000000000   -0.0000008500
   0.0000782399    0.0000000000    0.0000746100
   0.0000784299    0.0000000000   -0.0000742700
  -0.0000502301   -0.0000000800   -0.0000000800
   0.0000249799    0.0000185800    0.0000185800
   0.0000251699   -0.0000184300   -0.0000184300
  -0.0000502301    0.0000000800   -0.0000000800
   0.0000249799   -0.0000185800    0.0000185800
   0.0000251699    0.0000184300   -0.0000184300
  -0.0001818301    0.0000000000    0.0000008500
   0.0000782399    0.0000000000   -0.0000746100
   0.0000784299    0.0000000000    0.0000742700
  -0.0000502301   -0.0000000800    0.0000000800
   0.0000249799    0.0000185800   -0.0000185800
   0.0000251699   -0.0000184300    0.0000184300
  -0.0000502301    0.0000000800    0.0000000800
   0.0000249799   -0.0000185800   -0.0000185800
   0.0000251699    0.0000184300    0.0000184300
