phonopy:
  version: "2.38.0"
  calculator: qe
  frequency_unit_conversion_factor: 108.970772
  symmetry_tolerance: 1.00000e-05
  configuration:
    force_constants: "WRITE"
    dim: "3 3 3"

physical_unit:
  atomic_mass: "AMU"
  length: "au"
  force: "Ry/au"
  force_constants: "Ry/au^2"

space_group:
  type: "Pm-3m"
  number: 221
  Hall_symbol: "-P 4 2 3"

supercell_matrix:
- [   3,   0,   0 ]
- [   0,   3,   0 ]
- [   0,   0,   3 ]

primitive_cell:
  lattice:
  - [     7.817308854131857,     0.000000000000000,     0.000000000000000 ] # a
  - [     0.000000000000000,     7.817308854131857,     0.000000000000000 ] # b
  - [     0.000000000000000,     0.000000000000000,     7.817308854131857 ] # c
  points:
  - symbol: Sn # 1
    coordinates: [  0.000000000000000,  0.000000000000000,  0.000000000000000 ]
    mass: 118.710000
  - symbol: O # 2
    coordinates: [  0.000000000000000,  0.500000000000000,  0.000000000000000 ]
    mass: 15.999400
  - symbol: O # 3
    coordinates: [  0.000000000000000,  0.000000000000000,  0.500000000000000 ]
    mass: 15.999400
  - symbol: O # 4
    coordinates: [  0.500000000000000,  0.000000000000000,  0.000000000000000 ]
    mass: 15.999400
  - symbol: Ba # 5
    coordinates: [  0.500000000000000,  0.500000000000000,  0.500000000000000 ]
    mass: 137.327000
  reciprocal_lattice: # without 2pi
  - [     0.127921260200874,     0.000000000000000,     0.000000000000000 ] # a*
  - [     0.000000000000000,     0.127921260200874,     0.000000000000000 ] # b*
  - [     0.000000000000000,     0.000000000000000,     0.127921260200874 ] # c*

unit_cell:
  lattice:
  - [     7.817308854131858,     0.000000000000000,     0.000000000000000 ] # a
  - [     0.000000000000000,     7.817308854131858,     0.000000000000000 ] # b
  - [     0.000000000000000,     0.000000000000000,     7.817308854131858 ] # c
  points:
  - symbol: Sn # 1
    coordinates: [  0.000000000000000,  0.000000000000000,  0.000000000000000 ]
    mass: 118.710000
    reduced_to: 1
  - symbol: O # 2
    coordinates: [  0.000000000000000,  0.500000000000000,  0.000000000000000 ]
    mass: 15.999400
    reduced_to: 2
  - symbol: O # 3
    coordinates: [  0.000000000000000,  0.000000000000000,  0.500000000000000 ]
    mass: 15.999400
    reduced_to: 3
  - symbol: O # 4
    coordinates: [  0.500000000000000,  0.000000000000000,  0.000000000000000 ]
    mass: 15.999400
    reduced_to: 4
  - symbol: Ba # 5
    coordinates: [  0.500000000000000,  0.500000000000000,  0.500000000000000 ]
    mass: 137.327000
    reduced_to: 5

supercell:
  lattice:
  - [    23.451926562395574,     0.000000000000000,     0.000000000000000 ] # a
  - [     0.000000000000000,    23.451926562395574,     0.000000000000000 ] # b
  - [     0.000000000000000,     0.000000000000000,    23.451926562395574 ] # c
  points:
  - symbol: Sn # 1
    coordinates: [  0.000000000000000,  0.000000000000000,  0.000000000000000 ]
    mass: 118.710000
    reduced_to: 1
  - symbol: Sn # 2
    coordinates: [  0.333333333333333,  0.000000000000000,  0.000000000000000 ]
    mass: 118.710000
    reduced_to: 1
  - symbol: Sn # 3
    coordinates: [  0.666666666666667,  0.000000000000000,  0.000000000000000 ]
    mass: 118.710000
    reduced_to: 1
  - symbol: Sn # 4
    coordinates: [  0.000000000000000,  0.333333333333333,  0.000000000000000 ]
    mass: 118.710000
    reduced_to: 1
  - symbol: Sn # 5
    coordinates: [  0.333333333333333,  0.333333333333333,  0.000000000000000 ]
    mass: 118.710000
    reduced_to: 1
  - symbol: Sn # 6
    coordinates: [  0.666666666666667,  0.333333333333333,  0.000000000000000 ]
    mass: 118.710000
    reduced_to: 1
  - symbol: Sn # 7
    coordinates: [  0.000000000000000,  0.666666666666667,  0.000000000000000 ]
    mass: 118.710000
    reduced_to: 1
  - symbol: Sn # 8
    coordinates: [  0.333333333333333,  0.666666666666667,  0.000000000000000 ]
    mass: 118.710000
    reduced_to: 1
  - symbol: Sn # 9
    coordinates: [  0.666666666666667,  0.666666666666667,  0.000000000000000 ]
    mass: 118.710000
    reduced_to: 1
  - symbol: Sn # 10
    coordinates: [  0.000000000000000,  0.000000000000000,  0.333333333333333 ]
    mass: 118.710000
    reduced_to: 1
  - symbol: Sn # 11
    coordinates: [  0.333333333333333,  0.000000000000000,  0.333333333333333 ]
    mass: 118.710000
    reduced_to: 1
  - symbol: Sn # 12
    coordinates: [  0.666666666666667,  0.000000000000000,  0.333333333333333 ]
    mass: 118.710000
    reduced_to: 1
  - symbol: Sn # 13
    coordinates: [  0.000000000000000,  0.333333333333333,  0.333333333333333 ]
    mass: 118.710000
    reduced_to: 1
  - symbol: Sn # 14
    coordinates: [  0.333333333333333,  0.333333333333333,  0.333333333333333 ]
    mass: 118.710000
    reduced_to: 1
  - symbol: Sn # 15
    coordinates: [  0.666666666666667,  0.333333333333333,  0.333333333333333 ]
    mass: 118.710000
    reduced_to: 1
  - symbol: Sn # 16
    coordinates: [  0.000000000000000,  0.666666666666667,  0.333333333333333 ]
    mass: 118.710000
    reduced_to: 1
  - symbol: Sn # 17
    coordinates: [  0.333333333333333,  0.666666666666667,  0.333333333333333 ]
    mass: 118.710000
    reduced_to: 1
  - symbol: Sn # 18
    coordinates: [  0.666666666666667,  0.666666666666667,  0.333333333333333 ]
    mass: 118.710000
    reduced_to: 1
  - symbol: Sn # 19
    coordinates: [  0.000000000000000,  0.000000000000000,  0.666666666666667 ]
    mass: 118.710000
    reduced_to: 1
  - symbol: Sn # 20
    coordinates: [  0.333333333333333,  0.000000000000000,  0.666666666666667 ]
    mass: 118.710000
    reduced_to: 1
  - symbol: Sn # 21
    coordinates: [  0.666666666666667,  0.000000000000000,  0.666666666666667 ]
    mass: 118.710000
    reduced_to: 1
  - symbol: Sn # 22
    coordinates: [  0.000000000000000,  0.333333333333333,  0.666666666666667 ]
    mass: 118.710000
    reduced_to: 1
  - symbol: Sn # 23
    coordinates: [  0.333333333333333,  0.333333333333333,  0.666666666666667 ]
    mass: 118.710000
    reduced_to: 1
  - symbol: Sn # 24
    coordinates: [  0.666666666666667,  0.333333333333333,  0.666666666666667 ]
    mass: 118.710000
    reduced_to: 1
  - symbol: Sn # 25
    coordinates: [  0.000000000000000,  0.666666666666667,  0.666666666666667 ]
    mass: 118.710000
    reduced_to: 1
  - symbol: Sn # 26
    coordinates: [  0.333333333333333,  0.666666666666667,  0.666666666666667 ]
    mass: 118.710000
    reduced_to: 1
  - symbol: Sn # 27
    coordinates: [  0.666666666666667,  0.666666666666667,  0.666666666666667 ]
    mass: 118.710000
    reduced_to: 1
  - symbol: O # 28
    coordinates: [  0.000000000000000,  0.166666666666667,  0.000000000000000 ]
    mass: 15.999400
    reduced_to: 28
  - symbol: O # 29
    coordinates: [  0.333333333333333,  0.166666666666667,  0.000000000000000 ]
    mass: 15.999400
    reduced_to: 28
  - symbol: O # 30
    coordinates: [  0.666666666666667,  0.166666666666667,  0.000000000000000 ]
    mass: 15.999400
    reduced_to: 28
  - symbol: O # 31
    coordinates: [  0.000000000000000,  0.500000000000000,  0.000000000000000 ]
    mass: 15.999400
    reduced_to: 28
  - symbol: O # 32
    coordinates: [  0.333333333333333,  0.500000000000000,  0.000000000000000 ]
    mass: 15.999400
    reduced_to: 28
  - symbol: O # 33
    coordinates: [  0.666666666666667,  0.500000000000000,  0.000000000000000 ]
    mass: 15.999400
    reduced_to: 28
  - symbol: O # 34
    coordinates: [  0.000000000000000,  0.833333333333333,  0.000000000000000 ]
    mass: 15.999400
    reduced_to: 28
  - symbol: O # 35
    coordinates: [  0.333333333333333,  0.833333333333333,  0.000000000000000 ]
    mass: 15.999400
    reduced_to: 28
  - symbol: O # 36
    coordinates: [  0.666666666666667,  0.833333333333333,  0.000000000000000 ]
    mass: 15.999400
    reduced_to: 28
  - symbol: O # 37
    coordinates: [  0.000000000000000,  0.166666666666667,  0.333333333333333 ]
    mass: 15.999400
    reduced_to: 28
  - symbol: O # 38
    coordinates: [  0.333333333333333,  0.166666666666667,  0.333333333333333 ]
    mass: 15.999400
    reduced_to: 28
  - symbol: O # 39
    coordinates: [  0.666666666666667,  0.166666666666667,  0.333333333333333 ]
    mass: 15.999400
    reduced_to: 28
  - symbol: O # 40
    coordinates: [  0.000000000000000,  0.500000000000000,  0.333333333333333 ]
    mass: 15.999400
    reduced_to: 28
  - symbol: O # 41
    coordinates: [  0.333333333333333,  0.500000000000000,  0.333333333333333 ]
    mass: 15.999400
    reduced_to: 28
  - symbol: O # 42
    coordinates: [  0.666666666666667,  0.500000000000000,  0.333333333333333 ]
    mass: 15.999400
    reduced_to: 28
  - symbol: O # 43
    coordinates: [  0.000000000000000,  0.833333333333333,  0.333333333333333 ]
    mass: 15.999400
    reduced_to: 28
  - symbol: O # 44
    coordinates: [  0.333333333333333,  0.833333333333333,  0.333333333333333 ]
    mass: 15.999400
    reduced_to: 28
  - symbol: O # 45
    coordinates: [  0.666666666666667,  0.833333333333333,  0.333333333333333 ]
    mass: 15.999400
    reduced_to: 28
  - symbol: O # 46
    coordinates: [  0.000000000000000,  0.166666666666667,  0.666666666666667 ]
    mass: 15.999400
    reduced_to: 28
  - symbol: O # 47
    coordinates: [  0.333333333333333,  0.166666666666667,  0.666666666666667 ]
    mass: 15.999400
    reduced_to: 28
  - symbol: O # 48
    coordinates: [  0.666666666666667,  0.166666666666667,  0.666666666666667 ]
    mass: 15.999400
    reduced_to: 28
  - symbol: O # 49
    coordinates: [  0.000000000000000,  0.500000000000000,  0.666666666666667 ]
    mass: 15.999400
    reduced_to: 28
  - symbol: O # 50
    coordinates: [  0.333333333333333,  0.500000000000000,  0.666666666666667 ]
    mass: 15.999400
    reduced_to: 28
  - symbol: O # 51
    coordinates: [  0.666666666666667,  0.500000000000000,  0.666666666666667 ]
    mass: 15.999400
    reduced_to: 28
  - symbol: O # 52
    coordinates: [  0.000000000000000,  0.833333333333333,  0.666666666666667 ]
    mass: 15.999400
    reduced_to: 28
  - symbol: O # 53
    coordinates: [  0.333333333333333,  0.833333333333333,  0.666666666666667 ]
    mass: 15.999400
    reduced_to: 28
  - symbol: O # 54
    coordinates: [  0.666666666666667,  0.833333333333333,  0.666666666666667 ]
    mass: 15.999400
    reduced_to: 28
  - symbol: O # 55
    coordinates: [  0.000000000000000,  0.000000000000000,  0.166666666666667 ]
    mass: 15.999400
    reduced_to: 55
  - symbol: O # 56
    coordinates: [  0.333333333333333,  0.000000000000000,  0.166666666666667 ]
    mass: 15.999400
    reduced_to: 55
  - symbol: O # 57
    coordinates: [  0.666666666666667,  0.000000000000000,  0.166666666666667 ]
    mass: 15.999400
    reduced_to: 55
  - symbol: O # 58
    coordinates: [  0.000000000000000,  0.333333333333333,  0.166666666666667 ]
    mass: 15.999400
    reduced_to: 55
  - symbol: O # 59
    coordinates: [  0.333333333333333,  0.333333333333333,  0.166666666666667 ]
    mass: 15.999400
    reduced_to: 55
  - symbol: O # 60
    coordinates: [  0.666666666666667,  0.333333333333333,  0.166666666666667 ]
    mass: 15.999400
    reduced_to: 55
  - symbol: O # 61
    coordinates: [  0.000000000000000,  0.666666666666667,  0.166666666666667 ]
    mass: 15.999400
    reduced_to: 55
  - symbol: O # 62
    coordinates: [  0.333333333333333,  0.666666666666667,  0.166666666666667 ]
    mass: 15.999400
    reduced_to: 55
  - symbol: O # 63
    coordinates: [  0.666666666666667,  0.666666666666667,  0.166666666666667 ]
    mass: 15.999400
    reduced_to: 55
  - symbol: O # 64
    coordinates: [  0.000000000000000,  0.000000000000000,  0.500000000000000 ]
    mass: 15.999400
    reduced_to: 55
  - symbol: O # 65
    coordinates: [  0.333333333333333,  0.000000000000000,  0.500000000000000 ]
    mass: 15.999400
    reduced_to: 55
  - symbol: O # 66
    coordinates: [  0.666666666666667,  0.000000000000000,  0.500000000000000 ]
    mass: 15.999400
    reduced_to: 55
  - symbol: O # 67
    coordinates: [  0.000000000000000,  0.333333333333333,  0.500000000000000 ]
    mass: 15.999400
    reduced_to: 55
  - symbol: O # 68
    coordinates: [  0.333333333333333,  0.333333333333333,  0.500000000000000 ]
    mass: 15.999400
    reduced_to: 55
  - symbol: O # 69
    coordinates: [  0.666666666666667,  0.333333333333333,  0.500000000000000 ]
    mass: 15.999400
    reduced_to: 55
  - symbol: O # 70
    coordinates: [  0.000000000000000,  0.666666666666667,  0.500000000000000 ]
    mass: 15.999400
    reduced_to: 55
  - symbol: O # 71
    coordinates: [  0.333333333333333,  0.666666666666667,  0.500000000000000 ]
    mass: 15.999400
    reduced_to: 55
  - symbol: O # 72
    coordinates: [  0.666666666666667,  0.666666666666667,  0.500000000000000 ]
    mass: 15.999400
    reduced_to: 55
  - symbol: O # 73
    coordinates: [  0.000000000000000,  0.000000000000000,  0.833333333333333 ]
    mass: 15.999400
    reduced_to: 55
  - symbol: O # 74
    coordinates: [  0.333333333333333,  0.000000000000000,  0.833333333333333 ]
    mass: 15.999400
    reduced_to: 55
  - symbol: O # 75
    coordinates: [  0.666666666666667,  0.000000000000000,  0.833333333333333 ]
    mass: 15.999400
    reduced_to: 55
  - symbol: O # 76
    coordinates: [  0.000000000000000,  0.333333333333333,  0.833333333333333 ]
    mass: 15.999400
    reduced_to: 55
  - symbol: O # 77
    coordinates: [  0.333333333333333,  0.333333333333333,  0.833333333333333 ]
    mass: 15.999400
    reduced_to: 55
  - symbol: O # 78
    coordinates: [  0.666666666666667,  0.333333333333333,  0.833333333333333 ]
    mass: 15.999400
    reduced_to: 55
  - symbol: O # 79
    coordinates: [  0.000000000000000,  0.666666666666667,  0.833333333333333 ]
    mass: 15.999400
    reduced_to: 55
  - symbol: O # 80
    coordinates: [  0.333333333333333,  0.666666666666667,  0.833333333333333 ]
    mass: 15.999400
    reduced_to: 55
  - symbol: O # 81
    coordinates: [  0.666666666666667,  0.666666666666667,  0.833333333333333 ]
    mass: 15.999400
    reduced_to: 55
  - symbol: O # 82
    coordinates: [  0.166666666666667,  0.000000000000000,  0.000000000000000 ]
    mass: 15.999400
    reduced_to: 82
  - symbol: O # 83
    coordinates: [  0.500000000000000,  0.000000000000000,  0.000000000000000 ]
    mass: 15.999400
    reduced_to: 82
  - symbol: O # 84
    coordinates: [  0.833333333333333,  0.000000000000000,  0.000000000000000 ]
    mass: 15.999400
    reduced_to: 82
  - symbol: O # 85
    coordinates: [  0.166666666666667,  0.333333333333333,  0.000000000000000 ]
    mass: 15.999400
    reduced_to: 82
  - symbol: O # 86
    coordinates: [  0.500000000000000,  0.333333333333333,  0.000000000000000 ]
    mass: 15.999400
    reduced_to: 82
  - symbol: O # 87
    coordinates: [  0.833333333333333,  0.333333333333333,  0.000000000000000 ]
    mass: 15.999400
    reduced_to: 82
  - symbol: O # 88
    coordinates: [  0.166666666666667,  0.666666666666667,  0.000000000000000 ]
    mass: 15.999400
    reduced_to: 82
  - symbol: O # 89
    coordinates: [  0.500000000000000,  0.666666666666667,  0.000000000000000 ]
    mass: 15.999400
    reduced_to: 82
  - symbol: O # 90
    coordinates: [  0.833333333333333,  0.666666666666667,  0.000000000000000 ]
    mass: 15.999400
    reduced_to: 82
  - symbol: O # 91
    coordinates: [  0.166666666666667,  0.000000000000000,  0.333333333333333 ]
    mass: 15.999400
    reduced_to: 82
  - symbol: O # 92
    coordinates: [  0.500000000000000,  0.000000000000000,  0.333333333333333 ]
    mass: 15.999400
    reduced_to: 82
  - symbol: O # 93
    coordinates: [  0.833333333333333,  0.000000000000000,  0.333333333333333 ]
    mass: 15.999400
    reduced_to: 82
  - symbol: O # 94
    coordinates: [  0.166666666666667,  0.333333333333333,  0.333333333333333 ]
    mass: 15.999400
    reduced_to: 82
  - symbol: O # 95
    coordinates: [  0.500000000000000,  0.333333333333333,  0.333333333333333 ]
    mass: 15.999400
    reduced_to: 82
  - symbol: O # 96
    coordinates: [  0.833333333333333,  0.333333333333333,  0.333333333333333 ]
    mass: 15.999400
    reduced_to: 82
  - symbol: O # 97
    coordinates: [  0.166666666666667,  0.666666666666667,  0.333333333333333 ]
    mass: 15.999400
    reduced_to: 82
  - symbol: O # 98
    coordinates: [  0.500000000000000,  0.666666666666667,  0.333333333333333 ]
    mass: 15.999400
    reduced_to: 82
  - symbol: O # 99
    coordinates: [  0.833333333333333,  0.666666666666667,  0.333333333333333 ]
    mass: 15.999400
    reduced_to: 82
  - symbol: O # 100
    coordinates: [  0.166666666666667,  0.000000000000000,  0.666666666666667 ]
    mass: 15.999400
    reduced_to: 82
  - symbol: O # 101
    coordinates: [  0.500000000000000,  0.000000000000000,  0.666666666666667 ]
    mass: 15.999400
    reduced_to: 82
  - symbol: O # 102
    coordinates: [  0.833333333333333,  0.000000000000000,  0.666666666666667 ]
    mass: 15.999400
    reduced_to: 82
  - symbol: O # 103
    coordinates: [  0.166666666666667,  0.333333333333333,  0.666666666666667 ]
    mass: 15.999400
    reduced_to: 82
  - symbol: O # 104
    coordinates: [  0.500000000000000,  0.333333333333333,  0.666666666666667 ]
    mass: 15.999400
    reduced_to: 82
  - symbol: O # 105
    coordinates: [  0.833333333333333,  0.333333333333333,  0.666666666666667 ]
    mass: 15.999400
    reduced_to: 82
  - symbol: O # 106
    coordinates: [  0.166666666666667,  0.666666666666667,  0.666666666666667 ]
    mass: 15.999400
    reduced_to: 82
  - symbol: O # 107
    coordinates: [  0.500000000000000,  0.666666666666667,  0.666666666666667 ]
    mass: 15.999400
    reduced_to: 82
  - symbol: O # 108
    coordinates: [  0.833333333333333,  0.666666666666667,  0.666666666666667 ]
    mass: 15.999400
    reduced_to: 82
  - symbol: Ba # 109
    coordinates: [  0.166666666666667,  0.166666666666667,  0.166666666666667 ]
    mass: 137.327000
    reduced_to: 109
  - symbol: Ba # 110
    coordinates: [  0.500000000000000,  0.166666666666667,  0.166666666666667 ]
    mass: 137.327000
    reduced_to: 109
  - symbol: Ba # 111
    coordinates: [  0.833333333333333,  0.166666666666667,  0.166666666666667 ]
    mass: 137.327000
    reduced_to: 109
  - symbol: Ba # 112
    coordinates: [  0.166666666666667,  0.500000000000000,  0.166666666666667 ]
    mass: 137.327000
    reduced_to: 109
  - symbol: Ba # 113
    coordinates: [  0.500000000000000,  0.500000000000000,  0.166666666666667 ]
    mass: 137.327000
    reduced_to: 109
  - symbol: Ba # 114
    coordinates: [  0.833333333333333,  0.500000000000000,  0.166666666666667 ]
    mass: 137.327000
    reduced_to: 109
  - symbol: Ba # 115
    coordinates: [  0.166666666666667,  0.833333333333333,  0.166666666666667 ]
    mass: 137.327000
    reduced_to: 109
  - symbol: Ba # 116
    coordinates: [  0.500000000000000,  0.833333333333333,  0.166666666666667 ]
    mass: 137.327000
    reduced_to: 109
  - symbol: Ba # 117
    coordinates: [  0.833333333333333,  0.833333333333333,  0.166666666666667 ]
    mass: 137.327000
    reduced_to: 109
  - symbol: Ba # 118
    coordinates: [  0.166666666666667,  0.166666666666667,  0.500000000000000 ]
    mass: 137.327000
    reduced_to: 109
  - symbol: Ba # 119
    coordinates: [  0.500000000000000,  0.166666666666667,  0.500000000000000 ]
    mass: 137.327000
    reduced_to: 109
  - symbol: Ba # 120
    coordinates: [  0.833333333333333,  0.166666666666667,  0.500000000000000 ]
    mass: 137.327000
    reduced_to: 109
  - symbol: Ba # 121
    coordinates: [  0.166666666666667,  0.500000000000000,  0.500000000000000 ]
    mass: 137.327000
    reduced_to: 109
  - symbol: Ba # 122
    coordinates: [  0.500000000000000,  0.500000000000000,  0.500000000000000 ]
    mass: 137.327000
    reduced_to: 109
  - symbol: Ba # 123
    coordinates: [  0.833333333333333,  0.500000000000000,  0.500000000000000 ]
    mass: 137.327000
    reduced_to: 109
  - symbol: Ba # 124
    coordinates: [  0.166666666666667,  0.833333333333333,  0.500000000000000 ]
    mass: 137.327000
    reduced_to: 109
  - symbol: Ba # 125
    coordinates: [  0.500000000000000,  0.833333333333333,  0.500000000000000 ]
    mass: 137.327000
    reduced_to: 109
  - symbol: Ba # 126
    coordinates: [  0.833333333333333,  0.833333333333333,  0.500000000000000 ]
    mass: 137.327000
    reduced_to: 109
  - symbol: Ba # 127
    coordinates: [  0.166666666666667,  0.166666666666667,  0.833333333333333 ]
    mass: 137.327000
    reduced_to: 109
  - symbol: Ba # 128
    coordinates: [  0.500000000000000,  0.166666666666667,  0.833333333333333 ]
    mass: 137.327000
    reduced_to: 109
  - symbol: Ba # 129
    coordinates: [  0.833333333333333,  0.166666666666667,  0.833333333333333 ]
    mass: 137.327000
    reduced_to: 109
  - symbol: Ba # 130
    coordinates: [  0.166666666666667,  0.500000000000000,  0.833333333333333 ]
    mass: 137.327000
    reduced_to: 109
  - symbol: Ba # 131
    coordinates: [  0.500000000000000,  0.500000000000000,  0.833333333333333 ]
    mass: 137.327000
    reduced_to: 109
  - symbol: Ba # 132
    coordinates: [  0.833333333333333,  0.500000000000000,  0.833333333333333 ]
    mass: 137.327000
    reduced_to: 109
  - symbol: Ba # 133
    coordinates: [  0.166666666666667,  0.833333333333333,  0.833333333333333 ]
    mass: 137.327000
    reduced_to: 109
  - symbol: Ba # 134
    coordinates: [  0.500000000000000,  0.833333333333333,  0.833333333333333 ]
    mass: 137.327000
    reduced_to: 109
  - symbol: Ba # 135
    coordinates: [  0.833333333333333,  0.833333333333333,  0.833333333333333 ]
    mass: 137.327000
    reduced_to: 109
